phonopy:
  version: "2.33.2"
  frequency_unit_conversion_factor: 15.633302
  symmetry_tolerance: 1.00000e-05
  configuration:
    create_displacements: ".true."
    dim: "2 2 2"

physical_unit:
  atomic_mass: "AMU"
  length: "angstrom"

space_group:
  type: "Pmm2"
  number: 25
  Hall_symbol: "P 2 -2"

supercell_matrix:
- [   2,   0,   0 ]
- [   0,   2,   0 ]
- [   0,   0,   2 ]

primitive_cell:
  lattice:
  - [     7.949943202999909,     0.000000000000000,     0.000000000000000 ] # a
  - [     0.000000000000000,     7.949912129714084,     0.000000000000000 ] # b
  - [     0.000000000000000,     0.000000000000000,     8.165498248089136 ] # c
  points:
  - symbol: Ba # 1
    coordinates: [  0.000000000000000,  0.000000000000000,  0.495718241000000 ]
    mass: 137.327000
  - symbol: Ba # 2
    coordinates: [  0.000000000000000,  0.000000000000000,  0.995718241000000 ]
    mass: 137.327000
  - symbol: Ba # 3
    coordinates: [  0.000000000000000,  0.500000000000000,  0.495718241000000 ]
    mass: 137.327000
  - symbol: Ba # 4
    coordinates: [  0.000000000000000,  0.500000000000000,  0.995718241000000 ]
    mass: 137.327000
  - symbol: Ba # 5
    coordinates: [  0.500000000000000,  0.000000000000000,  0.495718241000000 ]
    mass: 137.327000
  - symbol: Ba # 6
    coordinates: [  0.500000000000000,  0.000000000000000,  0.995718241000000 ]
    mass: 137.327000
  - symbol: Ba # 7
    coordinates: [  0.500000000000000,  0.500000000000000,  0.495718241000000 ]
    mass: 137.327000
  - symbol: Ba # 8
    coordinates: [  0.500000000000000,  0.500000000000000,  0.995718241000000 ]
    mass: 137.327000
  - symbol: Ti # 9
    coordinates: [  0.250000000000000,  0.250000000000000,  0.254021168000000 ]
    mass: 47.867000
  - symbol: Ti # 10
    coordinates: [  0.250000000000000,  0.250000000000000,  0.754021168000000 ]
    mass: 47.867000
  - symbol: Ti # 11
    coordinates: [  0.250000000000000,  0.750000000000000,  0.254021168000000 ]
    mass: 47.867000
  - symbol: Ti # 12
    coordinates: [  0.250000000000000,  0.750000000000000,  0.754021168000000 ]
    mass: 47.867000
  - symbol: Ti # 13
    coordinates: [  0.750000000000000,  0.250000000000000,  0.254021168000000 ]
    mass: 47.867000
  - symbol: Ti # 14
    coordinates: [  0.750000000000000,  0.250000000000000,  0.754021168000000 ]
    mass: 47.867000
  - symbol: Ti # 15
    coordinates: [  0.750000000000000,  0.750000000000000,  0.254021168000000 ]
    mass: 47.867000
  - symbol: Ti # 16
    coordinates: [  0.750000000000000,  0.750000000000000,  0.754021168000000 ]
    mass: 47.867000
  - symbol: O # 17
    coordinates: [  0.250000000000000,  0.250000000000000,  0.479126334000000 ]
    mass: 15.999400
  - symbol: O # 18
    coordinates: [  0.250000000000000,  0.250000000000000,  0.979126334000000 ]
    mass: 15.999400
  - symbol: O # 19
    coordinates: [  0.250000000000000,  0.750000000000000,  0.479126334000000 ]
    mass: 15.999400
  - symbol: O # 20
    coordinates: [  0.250000000000000,  0.750000000000000,  0.979126334000000 ]
    mass: 15.999400
  - symbol: O # 21
    coordinates: [  0.750000000000000,  0.250000000000000,  0.479126334000000 ]
    mass: 15.999400
  - symbol: O # 22
    coordinates: [  0.750000000000000,  0.250000000000000,  0.979126334000000 ]
    mass: 15.999400
  - symbol: O # 23
    coordinates: [  0.750000000000000,  0.750000000000000,  0.479126334000000 ]
    mass: 15.999400
  - symbol: O # 24
    coordinates: [  0.750000000000000,  0.750000000000000,  0.979126334000000 ]
    mass: 15.999400
  - symbol: O # 25
    coordinates: [  0.250000000000000,  0.000000000000000,  0.236341178000000 ]
    mass: 15.999400
  - symbol: O # 26
    coordinates: [  0.250000000000000,  0.000000000000000,  0.736341178000000 ]
    mass: 15.999400
  - symbol: O # 27
    coordinates: [  0.250000000000000,  0.500000000000000,  0.236341178000000 ]
    mass: 15.999400
  - symbol: O # 28
    coordinates: [  0.250000000000000,  0.500000000000000,  0.736341178000000 ]
    mass: 15.999400
  - symbol: O # 29
    coordinates: [  0.750000000000000,  0.000000000000000,  0.236341178000000 ]
    mass: 15.999400
  - symbol: O # 30
    coordinates: [  0.750000000000000,  0.000000000000000,  0.736341178000000 ]
    mass: 15.999400
  - symbol: O # 31
    coordinates: [  0.750000000000000,  0.500000000000000,  0.236341178000000 ]
    mass: 15.999400
  - symbol: O # 32
    coordinates: [  0.750000000000000,  0.500000000000000,  0.736341178000000 ]
    mass: 15.999400
  - symbol: O # 33
    coordinates: [  0.000000000000000,  0.250000000000000,  0.236341029000000 ]
    mass: 15.999400
  - symbol: O # 34
    coordinates: [  0.000000000000000,  0.250000000000000,  0.736341000000000 ]
    mass: 15.999400
  - symbol: O # 35
    coordinates: [  0.000000000000000,  0.750000000000000,  0.236341029000000 ]
    mass: 15.999400
  - symbol: O # 36
    coordinates: [  0.000000000000000,  0.750000000000000,  0.736341000000000 ]
    mass: 15.999400
  - symbol: O # 37
    coordinates: [  0.500000000000000,  0.250000000000000,  0.236341029000000 ]
    mass: 15.999400
  - symbol: O # 38
    coordinates: [  0.500000000000000,  0.250000000000000,  0.736341000000000 ]
    mass: 15.999400
  - symbol: O # 39
    coordinates: [  0.500000000000000,  0.750000000000000,  0.236341029000000 ]
    mass: 15.999400
  - symbol: O # 40
    coordinates: [  0.500000000000000,  0.750000000000000,  0.736341000000000 ]
    mass: 15.999400
  reciprocal_lattice: # without 2pi
  - [     0.125787062179595,     0.000000000000000,     0.000000000000000 ] # a*
  - [     0.000000000000000,     0.125787553835009,     0.000000000000000 ] # b*
  - [     0.000000000000000,     0.000000000000000,     0.122466501077753 ] # c*

unit_cell:
  lattice:
  - [     7.949943202999909,     0.000000000000000,     0.000000000000000 ] # a
  - [     0.000000000000000,     7.949912129714084,     0.000000000000000 ] # b
  - [     0.000000000000000,     0.000000000000000,     8.165498248089136 ] # c
  points:
  - symbol: Ba # 1
    coordinates: [  0.000000000000000,  0.000000000000000,  0.495718241000000 ]
    mass: 137.327000
    reduced_to: 1
  - symbol: Ba # 2
    coordinates: [  0.000000000000000,  0.000000000000000,  0.995718241000000 ]
    mass: 137.327000
    reduced_to: 2
  - symbol: Ba # 3
    coordinates: [  0.000000000000000,  0.500000000000000,  0.495718241000000 ]
    mass: 137.327000
    reduced_to: 3
  - symbol: Ba # 4
    coordinates: [  0.000000000000000,  0.500000000000000,  0.995718241000000 ]
    mass: 137.327000
    reduced_to: 4
  - symbol: Ba # 5
    coordinates: [  0.500000000000000,  0.000000000000000,  0.495718241000000 ]
    mass: 137.327000
    reduced_to: 5
  - symbol: Ba # 6
    coordinates: [  0.500000000000000,  0.000000000000000,  0.995718241000000 ]
    mass: 137.327000
    reduced_to: 6
  - symbol: Ba # 7
    coordinates: [  0.500000000000000,  0.500000000000000,  0.495718241000000 ]
    mass: 137.327000
    reduced_to: 7
  - symbol: Ba # 8
    coordinates: [  0.500000000000000,  0.500000000000000,  0.995718241000000 ]
    mass: 137.327000
    reduced_to: 8
  - symbol: Ti # 9
    coordinates: [  0.250000000000000,  0.250000000000000,  0.254021168000000 ]
    mass: 47.867000
    reduced_to: 9
  - symbol: Ti # 10
    coordinates: [  0.250000000000000,  0.250000000000000,  0.754021168000000 ]
    mass: 47.867000
    reduced_to: 10
  - symbol: Ti # 11
    coordinates: [  0.250000000000000,  0.750000000000000,  0.254021168000000 ]
    mass: 47.867000
    reduced_to: 11
  - symbol: Ti # 12
    coordinates: [  0.250000000000000,  0.750000000000000,  0.754021168000000 ]
    mass: 47.867000
    reduced_to: 12
  - symbol: Ti # 13
    coordinates: [  0.750000000000000,  0.250000000000000,  0.254021168000000 ]
    mass: 47.867000
    reduced_to: 13
  - symbol: Ti # 14
    coordinates: [  0.750000000000000,  0.250000000000000,  0.754021168000000 ]
    mass: 47.867000
    reduced_to: 14
  - symbol: Ti # 15
    coordinates: [  0.750000000000000,  0.750000000000000,  0.254021168000000 ]
    mass: 47.867000
    reduced_to: 15
  - symbol: Ti # 16
    coordinates: [  0.750000000000000,  0.750000000000000,  0.754021168000000 ]
    mass: 47.867000
    reduced_to: 16
  - symbol: O # 17
    coordinates: [  0.250000000000000,  0.250000000000000,  0.479126334000000 ]
    mass: 15.999400
    reduced_to: 17
  - symbol: O # 18
    coordinates: [  0.250000000000000,  0.250000000000000,  0.979126334000000 ]
    mass: 15.999400
    reduced_to: 18
  - symbol: O # 19
    coordinates: [  0.250000000000000,  0.750000000000000,  0.479126334000000 ]
    mass: 15.999400
    reduced_to: 19
  - symbol: O # 20
    coordinates: [  0.250000000000000,  0.750000000000000,  0.979126334000000 ]
    mass: 15.999400
    reduced_to: 20
  - symbol: O # 21
    coordinates: [  0.750000000000000,  0.250000000000000,  0.479126334000000 ]
    mass: 15.999400
    reduced_to: 21
  - symbol: O # 22
    coordinates: [  0.750000000000000,  0.250000000000000,  0.979126334000000 ]
    mass: 15.999400
    reduced_to: 22
  - symbol: O # 23
    coordinates: [  0.750000000000000,  0.750000000000000,  0.479126334000000 ]
    mass: 15.999400
    reduced_to: 23
  - symbol: O # 24
    coordinates: [  0.750000000000000,  0.750000000000000,  0.979126334000000 ]
    mass: 15.999400
    reduced_to: 24
  - symbol: O # 25
    coordinates: [  0.250000000000000,  0.000000000000000,  0.236341178000000 ]
    mass: 15.999400
    reduced_to: 25
  - symbol: O # 26
    coordinates: [  0.250000000000000,  0.000000000000000,  0.736341178000000 ]
    mass: 15.999400
    reduced_to: 26
  - symbol: O # 27
    coordinates: [  0.250000000000000,  0.500000000000000,  0.236341178000000 ]
    mass: 15.999400
    reduced_to: 27
  - symbol: O # 28
    coordinates: [  0.250000000000000,  0.500000000000000,  0.736341178000000 ]
    mass: 15.999400
    reduced_to: 28
  - symbol: O # 29
    coordinates: [  0.750000000000000,  0.000000000000000,  0.236341178000000 ]
    mass: 15.999400
    reduced_to: 29
  - symbol: O # 30
    coordinates: [  0.750000000000000,  0.000000000000000,  0.736341178000000 ]
    mass: 15.999400
    reduced_to: 30
  - symbol: O # 31
    coordinates: [  0.750000000000000,  0.500000000000000,  0.236341178000000 ]
    mass: 15.999400
    reduced_to: 31
  - symbol: O # 32
    coordinates: [  0.750000000000000,  0.500000000000000,  0.736341178000000 ]
    mass: 15.999400
    reduced_to: 32
  - symbol: O # 33
    coordinates: [  0.000000000000000,  0.250000000000000,  0.236341029000000 ]
    mass: 15.999400
    reduced_to: 33
  - symbol: O # 34
    coordinates: [  0.000000000000000,  0.250000000000000,  0.736341000000000 ]
    mass: 15.999400
    reduced_to: 34
  - symbol: O # 35
    coordinates: [  0.000000000000000,  0.750000000000000,  0.236341029000000 ]
    mass: 15.999400
    reduced_to: 35
  - symbol: O # 36
    coordinates: [  0.000000000000000,  0.750000000000000,  0.736341000000000 ]
    mass: 15.999400
    reduced_to: 36
  - symbol: O # 37
    coordinates: [  0.500000000000000,  0.250000000000000,  0.236341029000000 ]
    mass: 15.999400
    reduced_to: 37
  - symbol: O # 38
    coordinates: [  0.500000000000000,  0.250000000000000,  0.736341000000000 ]
    mass: 15.999400
    reduced_to: 38
  - symbol: O # 39
    coordinates: [  0.500000000000000,  0.750000000000000,  0.236341029000000 ]
    mass: 15.999400
    reduced_to: 39
  - symbol: O # 40
    coordinates: [  0.500000000000000,  0.750000000000000,  0.736341000000000 ]
    mass: 15.999400
    reduced_to: 40

supercell:
  lattice:
  - [    15.899886405999817,     0.000000000000000,     0.000000000000000 ] # a
  - [     0.000000000000000,    15.899824259428168,     0.000000000000000 ] # b
  - [     0.000000000000000,     0.000000000000000,    16.330996496178273 ] # c
  points:
  - symbol: Ba # 1
    coordinates: [  0.000000000000000,  0.000000000000000,  0.247859120500000 ]
    mass: 137.327000
    reduced_to: 1
  - symbol: Ba # 2
    coordinates: [  0.500000000000000,  0.000000000000000,  0.247859120500000 ]
    mass: 137.327000
    reduced_to: 1
  - symbol: Ba # 3
    coordinates: [  0.000000000000000,  0.500000000000000,  0.247859120500000 ]
    mass: 137.327000
    reduced_to: 1
  - symbol: Ba # 4
    coordinates: [  0.500000000000000,  0.500000000000000,  0.247859120500000 ]
    mass: 137.327000
    reduced_to: 1
  - symbol: Ba # 5
    coordinates: [  0.000000000000000,  0.000000000000000,  0.747859120500000 ]
    mass: 137.327000
    reduced_to: 1
  - symbol: Ba # 6
    coordinates: [  0.500000000000000,  0.000000000000000,  0.747859120500000 ]
    mass: 137.327000
    reduced_to: 1
  - symbol: Ba # 7
    coordinates: [  0.000000000000000,  0.500000000000000,  0.747859120500000 ]
    mass: 137.327000
    reduced_to: 1
  - symbol: Ba # 8
    coordinates: [  0.500000000000000,  0.500000000000000,  0.747859120500000 ]
    mass: 137.327000
    reduced_to: 1
  - symbol: Ba # 9
    coordinates: [  0.000000000000000,  0.000000000000000,  0.497859120500000 ]
    mass: 137.327000
    reduced_to: 9
  - symbol: Ba # 10
    coordinates: [  0.500000000000000,  0.000000000000000,  0.497859120500000 ]
    mass: 137.327000
    reduced_to: 9
  - symbol: Ba # 11
    coordinates: [  0.000000000000000,  0.500000000000000,  0.497859120500000 ]
    mass: 137.327000
    reduced_to: 9
  - symbol: Ba # 12
    coordinates: [  0.500000000000000,  0.500000000000000,  0.497859120500000 ]
    mass: 137.327000
    reduced_to: 9
  - symbol: Ba # 13
    coordinates: [  0.000000000000000,  0.000000000000000,  0.997859120500000 ]
    mass: 137.327000
    reduced_to: 9
  - symbol: Ba # 14
    coordinates: [  0.500000000000000,  0.000000000000000,  0.997859120500000 ]
    mass: 137.327000
    reduced_to: 9
  - symbol: Ba # 15
    coordinates: [  0.000000000000000,  0.500000000000000,  0.997859120500000 ]
    mass: 137.327000
    reduced_to: 9
  - symbol: Ba # 16
    coordinates: [  0.500000000000000,  0.500000000000000,  0.997859120500000 ]
    mass: 137.327000
    reduced_to: 9
  - symbol: Ba # 17
    coordinates: [  0.000000000000000,  0.250000000000000,  0.247859120500000 ]
    mass: 137.327000
    reduced_to: 17
  - symbol: Ba # 18
    coordinates: [  0.500000000000000,  0.250000000000000,  0.247859120500000 ]
    mass: 137.327000
    reduced_to: 17
  - symbol: Ba # 19
    coordinates: [  0.000000000000000,  0.750000000000000,  0.247859120500000 ]
    mass: 137.327000
    reduced_to: 17
  - symbol: Ba # 20
    coordinates: [  0.500000000000000,  0.750000000000000,  0.247859120500000 ]
    mass: 137.327000
    reduced_to: 17
  - symbol: Ba # 21
    coordinates: [  0.000000000000000,  0.250000000000000,  0.747859120500000 ]
    mass: 137.327000
    reduced_to: 17
  - symbol: Ba # 22
    coordinates: [  0.500000000000000,  0.250000000000000,  0.747859120500000 ]
    mass: 137.327000
    reduced_to: 17
  - symbol: Ba # 23
    coordinates: [  0.000000000000000,  0.750000000000000,  0.747859120500000 ]
    mass: 137.327000
    reduced_to: 17
  - symbol: Ba # 24
    coordinates: [  0.500000000000000,  0.750000000000000,  0.747859120500000 ]
    mass: 137.327000
    reduced_to: 17
  - symbol: Ba # 25
    coordinates: [  0.000000000000000,  0.250000000000000,  0.497859120500000 ]
    mass: 137.327000
    reduced_to: 25
  - symbol: Ba # 26
    coordinates: [  0.500000000000000,  0.250000000000000,  0.497859120500000 ]
    mass: 137.327000
    reduced_to: 25
  - symbol: Ba # 27
    coordinates: [  0.000000000000000,  0.750000000000000,  0.497859120500000 ]
    mass: 137.327000
    reduced_to: 25
  - symbol: Ba # 28
    coordinates: [  0.500000000000000,  0.750000000000000,  0.497859120500000 ]
    mass: 137.327000
    reduced_to: 25
  - symbol: Ba # 29
    coordinates: [  0.000000000000000,  0.250000000000000,  0.997859120500000 ]
    mass: 137.327000
    reduced_to: 25
  - symbol: Ba # 30
    coordinates: [  0.500000000000000,  0.250000000000000,  0.997859120500000 ]
    mass: 137.327000
    reduced_to: 25
  - symbol: Ba # 31
    coordinates: [  0.000000000000000,  0.750000000000000,  0.997859120500000 ]
    mass: 137.327000
    reduced_to: 25
  - symbol: Ba # 32
    coordinates: [  0.500000000000000,  0.750000000000000,  0.997859120500000 ]
    mass: 137.327000
    reduced_to: 25
  - symbol: Ba # 33
    coordinates: [  0.250000000000000,  0.000000000000000,  0.247859120500000 ]
    mass: 137.327000
    reduced_to: 33
  - symbol: Ba # 34
    coordinates: [  0.750000000000000,  0.000000000000000,  0.247859120500000 ]
    mass: 137.327000
    reduced_to: 33
  - symbol: Ba # 35
    coordinates: [  0.250000000000000,  0.500000000000000,  0.247859120500000 ]
    mass: 137.327000
    reduced_to: 33
  - symbol: Ba # 36
    coordinates: [  0.750000000000000,  0.500000000000000,  0.247859120500000 ]
    mass: 137.327000
    reduced_to: 33
  - symbol: Ba # 37
    coordinates: [  0.250000000000000,  0.000000000000000,  0.747859120500000 ]
    mass: 137.327000
    reduced_to: 33
  - symbol: Ba # 38
    coordinates: [  0.750000000000000,  0.000000000000000,  0.747859120500000 ]
    mass: 137.327000
    reduced_to: 33
  - symbol: Ba # 39
    coordinates: [  0.250000000000000,  0.500000000000000,  0.747859120500000 ]
    mass: 137.327000
    reduced_to: 33
  - symbol: Ba # 40
    coordinates: [  0.750000000000000,  0.500000000000000,  0.747859120500000 ]
    mass: 137.327000
    reduced_to: 33
  - symbol: Ba # 41
    coordinates: [  0.250000000000000,  0.000000000000000,  0.497859120500000 ]
    mass: 137.327000
    reduced_to: 41
  - symbol: Ba # 42
    coordinates: [  0.750000000000000,  0.000000000000000,  0.497859120500000 ]
    mass: 137.327000
    reduced_to: 41
  - symbol: Ba # 43
    coordinates: [  0.250000000000000,  0.500000000000000,  0.497859120500000 ]
    mass: 137.327000
    reduced_to: 41
  - symbol: Ba # 44
    coordinates: [  0.750000000000000,  0.500000000000000,  0.497859120500000 ]
    mass: 137.327000
    reduced_to: 41
  - symbol: Ba # 45
    coordinates: [  0.250000000000000,  0.000000000000000,  0.997859120500000 ]
    mass: 137.327000
    reduced_to: 41
  - symbol: Ba # 46
    coordinates: [  0.750000000000000,  0.000000000000000,  0.997859120500000 ]
    mass: 137.327000
    reduced_to: 41
  - symbol: Ba # 47
    coordinates: [  0.250000000000000,  0.500000000000000,  0.997859120500000 ]
    mass: 137.327000
    reduced_to: 41
  - symbol: Ba # 48
    coordinates: [  0.750000000000000,  0.500000000000000,  0.997859120500000 ]
    mass: 137.327000
    reduced_to: 41
  - symbol: Ba # 49
    coordinates: [  0.250000000000000,  0.250000000000000,  0.247859120500000 ]
    mass: 137.327000
    reduced_to: 49
  - symbol: Ba # 50
    coordinates: [  0.750000000000000,  0.250000000000000,  0.247859120500000 ]
    mass: 137.327000
    reduced_to: 49
  - symbol: Ba # 51
    coordinates: [  0.250000000000000,  0.750000000000000,  0.247859120500000 ]
    mass: 137.327000
    reduced_to: 49
  - symbol: Ba # 52
    coordinates: [  0.750000000000000,  0.750000000000000,  0.247859120500000 ]
    mass: 137.327000
    reduced_to: 49
  - symbol: Ba # 53
    coordinates: [  0.250000000000000,  0.250000000000000,  0.747859120500000 ]
    mass: 137.327000
    reduced_to: 49
  - symbol: Ba # 54
    coordinates: [  0.750000000000000,  0.250000000000000,  0.747859120500000 ]
    mass: 137.327000
    reduced_to: 49
  - symbol: Ba # 55
    coordinates: [  0.250000000000000,  0.750000000000000,  0.747859120500000 ]
    mass: 137.327000
    reduced_to: 49
  - symbol: Ba # 56
    coordinates: [  0.750000000000000,  0.750000000000000,  0.747859120500000 ]
    mass: 137.327000
    reduced_to: 49
  - symbol: Ba # 57
    coordinates: [  0.250000000000000,  0.250000000000000,  0.497859120500000 ]
    mass: 137.327000
    reduced_to: 57
  - symbol: Ba # 58
    coordinates: [  0.750000000000000,  0.250000000000000,  0.497859120500000 ]
    mass: 137.327000
    reduced_to: 57
  - symbol: Ba # 59
    coordinates: [  0.250000000000000,  0.750000000000000,  0.497859120500000 ]
    mass: 137.327000
    reduced_to: 57
  - symbol: Ba # 60
    coordinates: [  0.750000000000000,  0.750000000000000,  0.497859120500000 ]
    mass: 137.327000
    reduced_to: 57
  - symbol: Ba # 61
    coordinates: [  0.250000000000000,  0.250000000000000,  0.997859120500000 ]
    mass: 137.327000
    reduced_to: 57
  - symbol: Ba # 62
    coordinates: [  0.750000000000000,  0.250000000000000,  0.997859120500000 ]
    mass: 137.327000
    reduced_to: 57
  - symbol: Ba # 63
    coordinates: [  0.250000000000000,  0.750000000000000,  0.997859120500000 ]
    mass: 137.327000
    reduced_to: 57
  - symbol: Ba # 64
    coordinates: [  0.750000000000000,  0.750000000000000,  0.997859120500000 ]
    mass: 137.327000
    reduced_to: 57
  - symbol: Ti # 65
    coordinates: [  0.125000000000000,  0.125000000000000,  0.127010584000000 ]
    mass: 47.867000
    reduced_to: 65
  - symbol: Ti # 66
    coordinates: [  0.625000000000000,  0.125000000000000,  0.127010584000000 ]
    mass: 47.867000
    reduced_to: 65
  - symbol: Ti # 67
    coordinates: [  0.125000000000000,  0.625000000000000,  0.127010584000000 ]
    mass: 47.867000
    reduced_to: 65
  - symbol: Ti # 68
    coordinates: [  0.625000000000000,  0.625000000000000,  0.127010584000000 ]
    mass: 47.867000
    reduced_to: 65
  - symbol: Ti # 69
    coordinates: [  0.125000000000000,  0.125000000000000,  0.627010584000000 ]
    mass: 47.867000
    reduced_to: 65
  - symbol: Ti # 70
    coordinates: [  0.625000000000000,  0.125000000000000,  0.627010584000000 ]
    mass: 47.867000
    reduced_to: 65
  - symbol: Ti # 71
    coordinates: [  0.125000000000000,  0.625000000000000,  0.627010584000000 ]
    mass: 47.867000
    reduced_to: 65
  - symbol: Ti # 72
    coordinates: [  0.625000000000000,  0.625000000000000,  0.627010584000000 ]
    mass: 47.867000
    reduced_to: 65
  - symbol: Ti # 73
    coordinates: [  0.125000000000000,  0.125000000000000,  0.377010584000000 ]
    mass: 47.867000
    reduced_to: 73
  - symbol: Ti # 74
    coordinates: [  0.625000000000000,  0.125000000000000,  0.377010584000000 ]
    mass: 47.867000
    reduced_to: 73
  - symbol: Ti # 75
    coordinates: [  0.125000000000000,  0.625000000000000,  0.377010584000000 ]
    mass: 47.867000
    reduced_to: 73
  - symbol: Ti # 76
    coordinates: [  0.625000000000000,  0.625000000000000,  0.377010584000000 ]
    mass: 47.867000
    reduced_to: 73
  - symbol: Ti # 77
    coordinates: [  0.125000000000000,  0.125000000000000,  0.877010584000000 ]
    mass: 47.867000
    reduced_to: 73
  - symbol: Ti # 78
    coordinates: [  0.625000000000000,  0.125000000000000,  0.877010584000000 ]
    mass: 47.867000
    reduced_to: 73
  - symbol: Ti # 79
    coordinates: [  0.125000000000000,  0.625000000000000,  0.877010584000000 ]
    mass: 47.867000
    reduced_to: 73
  - symbol: Ti # 80
    coordinates: [  0.625000000000000,  0.625000000000000,  0.877010584000000 ]
    mass: 47.867000
    reduced_to: 73
  - symbol: Ti # 81
    coordinates: [  0.125000000000000,  0.375000000000000,  0.127010584000000 ]
    mass: 47.867000
    reduced_to: 81
  - symbol: Ti # 82
    coordinates: [  0.625000000000000,  0.375000000000000,  0.127010584000000 ]
    mass: 47.867000
    reduced_to: 81
  - symbol: Ti # 83
    coordinates: [  0.125000000000000,  0.875000000000000,  0.127010584000000 ]
    mass: 47.867000
    reduced_to: 81
  - symbol: Ti # 84
    coordinates: [  0.625000000000000,  0.875000000000000,  0.127010584000000 ]
    mass: 47.867000
    reduced_to: 81
  - symbol: Ti # 85
    coordinates: [  0.125000000000000,  0.375000000000000,  0.627010584000000 ]
    mass: 47.867000
    reduced_to: 81
  - symbol: Ti # 86
    coordinates: [  0.625000000000000,  0.375000000000000,  0.627010584000000 ]
    mass: 47.867000
    reduced_to: 81
  - symbol: Ti # 87
    coordinates: [  0.125000000000000,  0.875000000000000,  0.627010584000000 ]
    mass: 47.867000
    reduced_to: 81
  - symbol: Ti # 88
    coordinates: [  0.625000000000000,  0.875000000000000,  0.627010584000000 ]
    mass: 47.867000
    reduced_to: 81
  - symbol: Ti # 89
    coordinates: [  0.125000000000000,  0.375000000000000,  0.377010584000000 ]
    mass: 47.867000
    reduced_to: 89
  - symbol: Ti # 90
    coordinates: [  0.625000000000000,  0.375000000000000,  0.377010584000000 ]
    mass: 47.867000
    reduced_to: 89
  - symbol: Ti # 91
    coordinates: [  0.125000000000000,  0.875000000000000,  0.377010584000000 ]
    mass: 47.867000
    reduced_to: 89
  - symbol: Ti # 92
    coordinates: [  0.625000000000000,  0.875000000000000,  0.377010584000000 ]
    mass: 47.867000
    reduced_to: 89
  - symbol: Ti # 93
    coordinates: [  0.125000000000000,  0.375000000000000,  0.877010584000000 ]
    mass: 47.867000
    reduced_to: 89
  - symbol: Ti # 94
    coordinates: [  0.625000000000000,  0.375000000000000,  0.877010584000000 ]
    mass: 47.867000
    reduced_to: 89
  - symbol: Ti # 95
    coordinates: [  0.125000000000000,  0.875000000000000,  0.877010584000000 ]
    mass: 47.867000
    reduced_to: 89
  - symbol: Ti # 96
    coordinates: [  0.625000000000000,  0.875000000000000,  0.877010584000000 ]
    mass: 47.867000
    reduced_to: 89
  - symbol: Ti # 97
    coordinates: [  0.375000000000000,  0.125000000000000,  0.127010584000000 ]
    mass: 47.867000
    reduced_to: 97
  - symbol: Ti # 98
    coordinates: [  0.875000000000000,  0.125000000000000,  0.127010584000000 ]
    mass: 47.867000
    reduced_to: 97
  - symbol: Ti # 99
    coordinates: [  0.375000000000000,  0.625000000000000,  0.127010584000000 ]
    mass: 47.867000
    reduced_to: 97
  - symbol: Ti # 100
    coordinates: [  0.875000000000000,  0.625000000000000,  0.127010584000000 ]
    mass: 47.867000
    reduced_to: 97
  - symbol: Ti # 101
    coordinates: [  0.375000000000000,  0.125000000000000,  0.627010584000000 ]
    mass: 47.867000
    reduced_to: 97
  - symbol: Ti # 102
    coordinates: [  0.875000000000000,  0.125000000000000,  0.627010584000000 ]
    mass: 47.867000
    reduced_to: 97
  - symbol: Ti # 103
    coordinates: [  0.375000000000000,  0.625000000000000,  0.627010584000000 ]
    mass: 47.867000
    reduced_to: 97
  - symbol: Ti # 104
    coordinates: [  0.875000000000000,  0.625000000000000,  0.627010584000000 ]
    mass: 47.867000
    reduced_to: 97
  - symbol: Ti # 105
    coordinates: [  0.375000000000000,  0.125000000000000,  0.377010584000000 ]
    mass: 47.867000
    reduced_to: 105
  - symbol: Ti # 106
    coordinates: [  0.875000000000000,  0.125000000000000,  0.377010584000000 ]
    mass: 47.867000
    reduced_to: 105
  - symbol: Ti # 107
    coordinates: [  0.375000000000000,  0.625000000000000,  0.377010584000000 ]
    mass: 47.867000
    reduced_to: 105
  - symbol: Ti # 108
    coordinates: [  0.875000000000000,  0.625000000000000,  0.377010584000000 ]
    mass: 47.867000
    reduced_to: 105
  - symbol: Ti # 109
    coordinates: [  0.375000000000000,  0.125000000000000,  0.877010584000000 ]
    mass: 47.867000
    reduced_to: 105
  - symbol: Ti # 110
    coordinates: [  0.875000000000000,  0.125000000000000,  0.877010584000000 ]
    mass: 47.867000
    reduced_to: 105
  - symbol: Ti # 111
    coordinates: [  0.375000000000000,  0.625000000000000,  0.877010584000000 ]
    mass: 47.867000
    reduced_to: 105
  - symbol: Ti # 112
    coordinates: [  0.875000000000000,  0.625000000000000,  0.877010584000000 ]
    mass: 47.867000
    reduced_to: 105
  - symbol: Ti # 113
    coordinates: [  0.375000000000000,  0.375000000000000,  0.127010584000000 ]
    mass: 47.867000
    reduced_to: 113
  - symbol: Ti # 114
    coordinates: [  0.875000000000000,  0.375000000000000,  0.127010584000000 ]
    mass: 47.867000
    reduced_to: 113
  - symbol: Ti # 115
    coordinates: [  0.375000000000000,  0.875000000000000,  0.127010584000000 ]
    mass: 47.867000
    reduced_to: 113
  - symbol: Ti # 116
    coordinates: [  0.875000000000000,  0.875000000000000,  0.127010584000000 ]
    mass: 47.867000
    reduced_to: 113
  - symbol: Ti # 117
    coordinates: [  0.375000000000000,  0.375000000000000,  0.627010584000000 ]
    mass: 47.867000
    reduced_to: 113
  - symbol: Ti # 118
    coordinates: [  0.875000000000000,  0.375000000000000,  0.627010584000000 ]
    mass: 47.867000
    reduced_to: 113
  - symbol: Ti # 119
    coordinates: [  0.375000000000000,  0.875000000000000,  0.627010584000000 ]
    mass: 47.867000
    reduced_to: 113
  - symbol: Ti # 120
    coordinates: [  0.875000000000000,  0.875000000000000,  0.627010584000000 ]
    mass: 47.867000
    reduced_to: 113
  - symbol: Ti # 121
    coordinates: [  0.375000000000000,  0.375000000000000,  0.377010584000000 ]
    mass: 47.867000
    reduced_to: 121
  - symbol: Ti # 122
    coordinates: [  0.875000000000000,  0.375000000000000,  0.377010584000000 ]
    mass: 47.867000
    reduced_to: 121
  - symbol: Ti # 123
    coordinates: [  0.375000000000000,  0.875000000000000,  0.377010584000000 ]
    mass: 47.867000
    reduced_to: 121
  - symbol: Ti # 124
    coordinates: [  0.875000000000000,  0.875000000000000,  0.377010584000000 ]
    mass: 47.867000
    reduced_to: 121
  - symbol: Ti # 125
    coordinates: [  0.375000000000000,  0.375000000000000,  0.877010584000000 ]
    mass: 47.867000
    reduced_to: 121
  - symbol: Ti # 126
    coordinates: [  0.875000000000000,  0.375000000000000,  0.877010584000000 ]
    mass: 47.867000
    reduced_to: 121
  - symbol: Ti # 127
    coordinates: [  0.375000000000000,  0.875000000000000,  0.877010584000000 ]
    mass: 47.867000
    reduced_to: 121
  - symbol: Ti # 128
    coordinates: [  0.875000000000000,  0.875000000000000,  0.877010584000000 ]
    mass: 47.867000
    reduced_to: 121
  - symbol: O # 129
    coordinates: [  0.125000000000000,  0.125000000000000,  0.239563167000000 ]
    mass: 15.999400
    reduced_to: 129
  - symbol: O # 130
    coordinates: [  0.625000000000000,  0.125000000000000,  0.239563167000000 ]
    mass: 15.999400
    reduced_to: 129
  - symbol: O # 131