250
1

1
  0.0099999999999998   0.0000000000000000   0.0000000000000000
 -0.1178169020307814  -0.0000026043203359   0.0000000532247016
  0.0036298158553042  -0.0000015995176724  -0.0000021552693884
  0.0123428505516081   0.0000019690468978   0.0000037395642605
 -0.0115967312122310   0.0000029432962928  -0.0000002202072808
  0.0205201514803428  -0.0000011044254283   0.0000024709119199
  0.0008967474733244  -0.0087708428610618  -0.0000067310893251
 -0.0079093751173813  -0.0085680442684058  -0.0000005228674918
  0.0119417545213725  -0.0090281576267612   0.0000023792677796
 -0.0119700009111301  -0.0083752738593993   0.0000100439741826
  0.0095398669414079  -0.0088952649533476  -0.0000039332001040
  0.0007160531625404   0.0119657494119240   0.0000012829401587
 -0.0090500551132044   0.0116187758802995   0.0000010672682016
  0.0123020026916245   0.0121349727411149   0.0000002509607534
 -0.0117047712363608   0.0118481287815639  -0.0000006103129421
  0.0083561111003237   0.0122748667535980  -0.0000023490345050
  0.0007112330173511  -0.0119620539881419   0.0000032031117909
 -0.0090528321757448  -0.0116192018261335   0.0000033406007873
  0.0123008261395202  -0.0121430736458300   0.0000006950995531
 -0.0116993948771290  -0.0118482354168790  -0.0000009759379648
  0.0083604467563231  -0.0122660500877588   0.0000017571904029
  0.0008912814905295   0.0087726112622489   0.0000063610952118
 -0.0079144465428147   0.0085654167795601   0.0000032732563562
  0.0119418405222079   0.0090278713493030   0.0000033784931029
 -0.0119611365630449   0.0083709117337050   0.0000015688407717
  0.0095464324809458   0.0088865632849420   0.0000029175061489
  0.0009004353354527  -0.0000030629440749  -0.0087735046005772
 -0.0079104613960695   0.0000028118178128  -0.0085702847452524
  0.0119408579344825   0.0000054684208961  -0.0090274135762617
 -0.0119713282006459   0.0000041872386458  -0.0083775553953604
  0.0095442359508839  -0.0000006621279127  -0.0088958269909044
 -0.0005693643110754  -0.0087435055350300  -0.0087349537170560
 -0.0099084757848425  -0.0092601119717687  -0.0092555992349634
  0.0119852454265454  -0.0087283571495186  -0.0087290295559665
 -0.0118901811141851  -0.0086764080100274  -0.0086773087655655
  0.0075547647740058  -0.0081956347632922  -0.0081960662672543
 -0.0000605332121929   0.0119526353553368  -0.0087031890176502
 -0.0091364177292827   0.0119000650558694  -0.0087870551283812
  0.0120895647933073   0.0121062558709462  -0.0084804371942372
 -0.0118920688297265   0.0118530164346051  -0.0088746837959802
  0.0082693313535537   0.0119550598788367  -0.0086250694029567
 -0.0000654874703749  -0.0119455226385475  -0.0087010283259036
 -0.0091405669159035  -0.0119023012866213  -0.0087892941970586
  0.0120904937853161  -0.0121109866614538  -0.0084801319861621
 -0.0118889361870135  -0.0118531116320231  -0.0088736585272751
  0.0082732654933566  -0.0119488468574241  -0.0086214782772514
 -0.0005721747986164   0.0087367600619570  -0.0087453512480105
 -0.0099137178484247   0.0092599828869808  -0.0092602932789733
  0.0119858659235163   0.0087298484670374  -0.0087307682546852
 -0.0118822319741431   0.0086687872057743  -0.0086726646518933
  0.0075588738086261   0.0081923072663619  -0.0081987428907463
  0.0007147964304071  -0.0000004021416001   0.0119629017396041
 -0.0090485553557963  -0.0000001496225033   0.0116217568315570
  0.0123081787730285   0.0000015895355494   0.0121400625297297
 -0.0117116489723289  -0.0000000202841724   0.0118574453091565
  0.0083609493930932   0.0000041396040793   0.0122741349709210
 -0.0000619527311869  -0.0087052513717649   0.0119484362796582
 -0.0091350761427388  -0.0087856244449479   0.0119074282987852
  0.0120857341082807  -0.0084809379555253   0.0121142775015649
 -0.0118926135111052  -0.0088769673034434   0.0118580221080867
  0.0082717862889766  -0.0086282029086980   0.0119617113165567
 -0.0001418818405950   0.0119989048215946   0.0119942407532948
 -0.0088919446224432   0.0121752405528538   0.0121776868648964
  0.0114579728594834   0.0124338960033651   0.0124393182753905
 -0.0126283761861092   0.0116145156243757   0.0116129608003397
  0.0084581612769852   0.0117842554872588   0.0117817438033904
 -0.0001496729599873  -0.0119935549368697   0.0119930649847171
 -0.0088971363223830  -0.0121803942214320   0.0121761591328271
  0.0114636546427919  -0.0124387383715748   0.0124394059066041
 -0.0126252178791085  -0.0116137047189582   0.0116173243234260
  0.0084609200610084  -0.0117761239619473   0.0117807591703849
 -0.0000659389937213   0.0087033699172327   0.0119472943214016
 -0.0091398600845270   0.0087952775547749   0.0119029564526774
  0.0120954037920628   0.0084825790963203   0.0121154249538001
 -0.0118933944855223   0.0088698080213443   0.0118626827528872
  0.0082729859741562   0.0086178420725818   0.0119565063497050
  0.0007153109418708   0.0000001388088964  -0.0119608931506579
 -0.0090542669438684   0.0000011858352892  -0.0116204165281577
  0.0123041021659466   0.0000025509608716  -0.0121482219739697
 -0.0117036858864034  -0.0000027315751154  -0.0118587378442854
  0.0083606191360658   0.0000007368448903  -0.0122668226666901
 -0.0000650625532349  -0.0087029107549277  -0.0119459133247025
 -0.0091360270505067  -0.0087881407251540  -0.0119030560258343
  0.0120852756501074  -0.0084783551223334  -0.0121109039311059
 -0.0118912602650032  -0.0088715239413903  -0.0118593742451685
  0.0082730094283469  -0.0086240893146432  -0.0119525505857366
 -0.0001471530185619   0.0119938887428686  -0.0119944198897193
 -0.0088911236923774   0.0121744459772398  -0.0121778220886148
  0.0114539418422741   0.0124321554957448  -0.0124368156054036
 -0.0126252526299754   0.0116115801766948  -0.0116131771502421
  0.0084586227985147   0.0117815521219658  -0.0117808534631040
 -0.0001492817852336  -0.0119936416476807  -0.0119975210179979
 -0.0088933226437575  -0.0121832818738082  -0.0121752422824968
  0.0114626273301994  -0.0124346757277262  -0.0124387685464150
 -0.0126254645288639  -0.0116067110166926  -0.0116151959186415
  0.0084584737369821  -0.0117739937042941  -0.0117800592899683
 -0.0000665879962147   0.0087027774030820  -0.0119458613515927
 -0.0091408182354296   0.0087935123721995  -0.0119029761291956
  0.0120943955679120   0.0084796791151964  -0.0121167392997106
 -0.0118886247158088   0.0088708651458198  -0.0118601120524653
  0.0082687959804214   0.0086187482261398  -0.0119519700218006
  0.0008998317810475  -0.0000042174775902   0.0087694092543748
 -0.0079160511632487   0.0000039180586504   0.0085619324083930
  0.0119362557033027   0.0000049830172477   0.0090297481841062
 -0.0119639811954598  -0.0000012142195925   0.0083754803559123
  0.0095481560025844   0.0000043942410929   0.0088879842386789
 -0.0005717924357701  -0.0087409589704076   0.0087361074363172
 -0.0099110815631057  -0.0092601588476541   0.0092540017662877
  0.0119861318020089  -0.0087206176758735   0.0087238985420041
 -0.0118848164294868  -0.0086705409808202   0.0086744086797452
  0.0075602849337260  -0.0081929931595250   0.0081908763375615
 -0.0000648315974641   0.0119422277599221   0.0087026936802123
 -0.0091342086436930   0.0118992593003247   0.0087879575410548
  0.0120876919768457   0.0121072495885191   0.0084796473941035
 -0.0118900114480812   0.0118559061337905   0.0088732772809142
  0.0082711008932678   0.0119509131325324   0.0086219525224877
 -0.0000634058899069  -0.0119432523719209   0.0087045735176641
 -0.0091379685341711  -0.0119048400902841   0.0087892341225722
  0.0120909464273586  -0.0121164374674711   0.0084761435878716
 -0.0118864468604401  -0.0118539276657371   0.0088713473591634
  0.0082692521797755  -0.0119485553428263   0.0086226338546683
 -0.0005712698104693   0.0087421541011480   0.0087397803451935
 -0.0099177989759129   0.0092640635054941   0.0092552269857741
  0.0119870522949889   0.0087248039161822   0.0087235984250919
 -0.0118793642065629   0.0086684565144151   0.0086696243887368
  0.0075548211143785   0.0081916178157808   0.0081933687691755
 -0.0008237022068722  -0.0030708849403042  -0.0030665644054507
  0.0087226425549739  -0.0116416852203768  -0.0116394695909788
 -0.0002531795193773  -0.0119942165345896  -0.0119933095567906
 -0.0086434467323832  -0.0123223954557910  -0.0123208071378408
  0.0230004433822198  -0.0207568440336110  -0.0207522071934817
 -0.0116769633551237   0.0090229212479747  -0.0115242442537201
  0.0085060848563520   0.0087425021107606  -0.0119696789420383
 -0.0000318850229477   0.0086968438406850  -0.0119459112946307
 -0.0089222491215599   0.0086649314160233  -0.0118850074389212
  0.0122931314380693   0.0083420212295554  -0.0124499416427362
 -0.0117347829440201  -0.0000027369604198  -0.0118637107259372
  0.0085595299981245  -0.0000039130491559  -0.0120761190732737
  0.0002143579123505  -0.0000028691808502  -0.0119641727093557
 -0.0088524758790104  -0.0000000987989925  -0.0118217091186492
  0.0122706495552439  -0.0000037797609264  -0.0121348944168849
 -0.0116850270002312  -0.0090191406898159  -0.0115205391368841
  0.0085049965198694  -0.0087445349370713  -0.0119680670764850
  0.0000084815358276  -0.0087009052486276  -0.0119438979579928
 -0.0089154188180574  -0.0086652036064534  -0.0118873332770487
  0.0122928143026813  -0.0083363700467058  -0.0124514654328409
 -0.0008297067820420   0.0030658288060989  -0.0030633369638886
  0.0087241442212203   0.0116458226763577  -0.0116400212627150
 -0.0002531415406368   0.0120001077344217  -0.0119962413614285
 -0.0086358246792755   0.0123213542098676  -0.0123187558524005
  0.0229985134704575   0.0207478681292812  -0.0207573430073120
 -0.0116810986262103  -0.0115227463428988   0.0090199723431555
  0.0085073490571188  -0.0119680230832196   0.0087399799168935
  0.0000050678472117  -0.0119528897636449   0.0087000952563598
 -0.0089194178061319  -0.0118840133846986   0.0086699804049681
  0.0122954103335206  -0.0124495449155055   0.0083422822040782
 -0.0115269107760013   0.0086567110353218   0.0086578591475143
  0.0084077107227104   0.0081348918717384   0.0081371595240037
  0.0005038424723332   0.0087289485388346   0.0087266829673903
 -0.0090684105265444   0.0093229095802537   0.0093205312743854
  0.0123193730714544   0.0087442094352364   0.0087465910088318
 -0.0117890582104773   0.0000018257966420   0.0085704394673612
  0.0087425305536461  -0.0000029768635764   0.0083206511349124
  0.0008608171428913  -0.0000033602234738   0.0087293595345798
 -0.0087407104666159   0.0000307410061574   0.0091490880381781
  0.0121078306460079   0.0000001084638197   0.0088267993954313
 -0.0115398994316706  -0.0086604282993883   0.0086557406924218
  0.0084108670770111  -0.0081363237732610   0.0081339868223032
  0.0005093571657814  -0.0087266494943729   0.0087278116133579
 -0.0090644410808564  -0.0093214192641442   0.0093239291463731
  0.0123204221392412  -0.0087471179930956   0.0087476981145608
 -0.0116797894138350   0.0115227811535933   0.0090219568076490
  0.0085059946894923   0.0119767644449211   0.0087390028495475
  0.0000434069606413   0.0119529856160677   0.0087043836498574
 -0.0089184761807100   0.0118811180786342   0.0086644207275787
  0.0122932640414255   0.0124449799833405   0.0083435439757067
 -0.0117306700678706  -0.0118584439417846   0.0000037761335992
  0.0085586118444122  -0.0120676075854238   0.0000014152476096
  0.0002176720907997  -0.0119663340204820  -0.0000028535123491
 -0.0088555602190235  -0.0118169498911897  -0.0000348035680127
  0.0122671508745446  -0.0121298707405510   0.0000295083155987
 -0.0117851275295877   0.0085637212647338   0.0000030320131798
  0.0087413808783122   0.0083203940342241   0.0000005965165172
  0.0008238682900615   0.0087256989876841   0.0000043055767669
 -0.0087391894126977   0.0091428722282623  -0.0000255913661299
  0.0121048006304321   0.0088194505670205   0.0000055633085992
 -0.0121101388035105  -0.0000006430358080   0.0000002465501241
  0.0089401571997086  -0.0000060004537257   0.0000002788407368
  0.0029524666218312   0.0000000609943851  -0.0000021106967278
 -0.0085177529543966   0.0000030735215491   0.0000348439370159
  0.0118184468745002  -0.0000015242854178   0.0000004444467845
 -0.0117957977833344  -0.0085718906739039   0.0000015893878127
  0.0087464860344420  -0.0083218229362762  -0.0000002020838171
  0.0008686333652222  -0.0087258264016905   0.0000041980452592
 -0.0087399152101639  -0.0091461465823533   0.0000666111159560
  0.0121047956895024  -0.0088246188973694   0.0000101471231042
 -0.0117346241144320   0.0118616795870958   0.0000020419246386
  0.0085586586293520   0.0120765605490940  -0.0000007842019205
  0.0002213143533337   0.0119659104603054   0.0000006232121418
 -0.0088596626802666   0.0118165939795208   0.0000144981806036
  0.0122717168591100   0.0121299787608020  -0.0000018704003273
 -0.0116774542287198  -0.0115217986947733  -0.0090209625835189
  0.0084972111035174  -0.0119635937862011  -0.0087437740880992
  0.0000039453932926  -0.0119422992635344  -0.0087065677176309
 -0.0089151358262322  -0.0118802797798959  -0.0086678684619234
  0.0122920273110245  -0.0124461995677590  -0.0083425267963023
 -0.0115296986679533   0.0086523957496073  -0.0086613889526624
  0.0084094475026975   0.0081332821963792  -0.0081414376930854
  0.0004992949426795   0.0087253577612761  -0.0087306678698122
 -0.0090652119751115   0.0093198019988840  -0.0093261260243830
  0.0123212145553922   0.0087394748201685  -0.0087447760659452
 -0.0117891393639571  -0.0000001319145312  -0.0085755785281668
  0.0087442206339712  -0.0000047518817696  -0.0083248803517709
  0.0008650480772335   0.0000011306611079  -0.0087265631221244
 -0.0087407864191435   0.0000007871077454  -0.0091454490886573
  0.0121053725272034   0.0000009854585421  -0.0088279054265737
 -0.0115402137152084  -0.0086561330776483  -0.0086610077016696
  0.0084105186239136  -0.0081396895066365  -0.0081389216886315
  0.0005095703476860  -0.0087291140283103  -0.0087313029339941
 -0.0090662936534540  -0.0093188963585201  -0.0093248539971580
  0.0123165369555471  -0.0087439981418964  -0.0087477234865220
 -0.0116824253583973   0.0115239608393611  -0.0090189938758478
  0.0084986343600009   0.0119738813674505  -0.0087455478187019
  0.0000185129183523   0.0119441684326878  -0.0087084192936222
 -0.0089156496168502   0.0118801524838308  -0.0086707648549147
  0.0122937669117186   0.0124496302741970  -0.0083425448993350
 -0.0008236089617675  -0.0030674091961910   0.0030654771821200
  0.0087174627308672  -0.0116386374009225   0.0116447218027151
 -0.0002511770169278  -0.0119946912236319   0.0120005295541207
 -0.0086363732107454  -0.0123178719234631   0.0123196383131622
  0.0229986668551287  -0.0207513470473690   0.0207495701396370
 -0.0116799136228079   0.0090202186000207   0.0115223736344377
  0.0085105340692447   0.0087421207801809   0.0119696748318012
  0.0000409303100568   0.0087006556478731   0.0119472129349913
 -0.0089175638777706   0.0086626227619354   0.0118857124186839
  0.0122892377738514   0.0083372103028256   0.0124468083198198
 -0.0117371600421464   0.0000260977207923   0.0118629522910897
  0.0085624904237267  -0.0000003178272609   0.0120759523637627
  0.0002185078887186  -0.0000047279311519   0.0119645402812325
 -0.0088546942463218   0.0000001400762796   0.0118170558073526
  0.0122713846034855  -0.0000526311050556   0.0121366400464153
 -0.0116833510586885  -0.0090217206882953   0.0115250204136315
  0.0085022196173624  -0.0087446741950084   0.0119741350952931
  0.0000159743085006  -0.0087040818014011   0.0119492410296430
 -0.0089151919180394  -0.0086652771415109   0.0118852477262018
  0.0122873001676630  -0.0083391710504941   0.0124502821348495
 -0.0008300908338330   0.0030705575366023   0.0030625558856020
  0.0087180597609117   0.0116473207470386   0.0116423766025583
 -0.0002780934752410   0.0119996394909361   0.0120023301872714
 -0.0086380105091357   0.0123138657344052   0.0123182347986435
  0.0229999223196561   0.0207496169925749   0.0207562659543104
