mesh: [    32,    32,    32 ]
nqpoint: 816    
reciprocal_lattice:
- [   0.35264394,   0.00000000,   0.00000000 ] # a*
- [   0.00000000,   0.35264394,   0.00000000 ] # b*
- [   0.00000000,   0.00000000,   0.35264394 ] # c*
natom:   2      
lattice:
- [     2.835721495911225,     0.000000000000000,     0.000000000000000 ] # a
- [     0.000000000000000,     2.835721495911225,     0.000000000000000 ] # b
- [     0.000000000000000,     0.000000000000000,     2.835721495911225 ] # c
points:
- symbol: Fe # 1
  coordinates: [  0.000000000000000,  0.000000000000000,  0.000000000000000 ]
  mass: 55.845000
- symbol: Fe # 2
  coordinates: [  0.500000000000000,  0.500000000000000,  0.500000000000000 ]
  mass: 55.845000

phonon:
- q-position: [    0.0156250,    0.0156250,    0.0156250 ]
  distance_from_gamma:  0.009543707
  weight: 8    
  band:
  - # 1
    frequency:     1.1770194930
  - # 2
    frequency:     1.1770194930
  - # 3
    frequency:     1.2952529681
  - # 4
    frequency:     9.4707689815
  - # 5
    frequency:     9.4707689815
  - # 6
    frequency:     9.4753435514

- q-position: [    0.0468750,    0.0156250,    0.0156250 ]
  distance_from_gamma:  0.018274807
  weight: 24   
  band:
  - # 1
    frequency:     1.3652593453
  - # 2
    frequency:     1.3710482067
  - # 3
    frequency:     1.6933693158
  - # 4
    frequency:     9.3710497098
  - # 5
    frequency:     9.3716712175
  - # 6
    frequency:     9.4313896179

- q-position: [    0.0781250,    0.0156250,    0.0156250 ]
  distance_from_gamma:  0.028631120
  weight: 24   
  band:
  - # 1
    frequency:     1.6635684931
  - # 2
    frequency:     1.6710837977
  - # 3
    frequency:     2.2454983473
  - # 4
    frequency:     9.1793780840
  - # 5
    frequency:     9.1821004052
  - # 6
    frequency:     9.3563466091

- q-position: [    0.1093750,    0.0156250,    0.0156250 ]
  distance_from_gamma:  0.039349710
  weight: 24   
  band:
  - # 1
    frequency:     1.9897912430
  - # 2
    frequency:     1.9985199613
  - # 3
    frequency:     2.8085562163
  - # 4
    frequency:     8.9163164294
  - # 5
    frequency:     8.9238426033
  - # 6
    frequency:     9.2624735465

- q-position: [    0.1406250,    0.0156250,    0.0156250 ]
  distance_from_gamma:  0.050199050
  weight: 24   
  band:
  - # 1
    frequency:     2.3009659964
  - # 2
    frequency:     2.3109230917
  - # 3
    frequency:     3.3200231251
  - # 4
    frequency:     8.6100117128
  - # 5
    frequency:     8.6233955337
  - # 6
    frequency:     9.1672105179

- q-position: [    0.1718750,    0.0156250,    0.0156250 ]
  distance_from_gamma:  0.061109539
  weight: 24   
  band:
  - # 1
    frequency:     2.5806143123
  - # 2
    frequency:     2.5917677434
  - # 3
    frequency:     3.7539450515
  - # 4
    frequency:     8.2917389096
  - # 5
    frequency:     8.3115050005
  - # 6
    frequency:     9.0864459582

- q-position: [    0.2031250,    0.0156250,    0.0156250 ]
  distance_from_gamma:  0.072053404
  weight: 24   
  band:
  - # 1
    frequency:     2.8300689654
  - # 2
    frequency:     2.8422197732
  - # 3
    frequency:     4.1056385711
  - # 4
    frequency:     7.9916365286
  - # 5
    frequency:     8.0176585074
  - # 6
    frequency:     9.0298783383

- q-position: [    0.2343750,    0.0156250,    0.0156250 ]
  distance_from_gamma:  0.083017448
  weight: 24   
  band:
  - # 1
    frequency:     3.0635410036
  - # 2
    frequency:     3.0763339382
  - # 3
    frequency:     4.3869299248
  - # 4
    frequency:     7.7329905044
  - # 5
    frequency:     7.7644558456
  - # 6
    frequency:     8.9976680043

- q-position: [    0.2656250,    0.0156250,    0.0156250 ]
  distance_from_gamma:  0.093994609
  weight: 24   
  band:
  - # 1
    frequency:     3.3031035409
  - # 2
    frequency:     3.3161653576
  - # 3
    frequency:     4.6232931604
  - # 4
    frequency:     7.5270998239
  - # 5
    frequency:     7.5626251254
  - # 6
    frequency:     8.9795390418

- q-position: [    0.2968750,    0.0156250,    0.0156250 ]
  distance_from_gamma:  0.104980772
  weight: 24   
  band:
  - # 1
    frequency:     3.5719042950
  - # 2
    frequency:     3.5851129499
  - # 3
    frequency:     4.8494649688
  - # 4
    frequency:     7.3706712648
  - # 5
    frequency:     7.4085713197
  - # 6
    frequency:     8.9566707121

- q-position: [    0.3281250,    0.0156250,    0.0156250 ]
  distance_from_gamma:  0.115973380
  weight: 24   
  band:
  - # 1
    frequency:     3.8865304932
  - # 2
    frequency:     3.9002931879
  - # 3
    frequency:     5.1020699190
  - # 4
    frequency:     7.2471025310
  - # 5
    frequency:     7.2857280770
  - # 6
    frequency:     8.9056773318

- q-position: [    0.3593750,    0.0156250,    0.0156250 ]
  distance_from_gamma:  0.126970758
  weight: 24   
  band:
  - # 1
    frequency:     4.2514831425
  - # 2
    frequency:     4.2667622005
  - # 3
    frequency:     5.4099678289
  - # 4
    frequency:     7.1312955434
  - # 5
    frequency:     7.1693115654
  - # 6
    frequency:     8.8033869022

- q-position: [    0.3906250,    0.0156250,    0.0156250 ]
  distance_from_gamma:  0.137971765
  weight: 24   
  band:
  - # 1
    frequency:     4.6581941180
  - # 2
    frequency:     4.6761077488
  - # 3
    frequency:     5.7857429842
  - # 4
    frequency:     6.9960764327
  - # 5
    frequency:     7.0325929685
  - # 6
    frequency:     8.6312263263

- q-position: [    0.4218750,    0.0156250,    0.0156250 ]
  distance_from_gamma:  0.148975599
  weight: 24   
  band:
  - # 1
    frequency:     5.0881329488
  - # 2
    frequency:     5.1093715943
  - # 3
    frequency:     6.2225844208
  - # 4
    frequency:     6.8180707643
  - # 5
    frequency:     6.8526153749
  - # 6
    frequency:     8.3785098902

- q-position: [    0.4531250,    0.0156250,    0.0156250 ]
  distance_from_gamma:  0.159981674
  weight: 24   
  band:
  - # 1
    frequency:     5.5175805839
  - # 2
    frequency:     5.5421637309
  - # 3
    frequency:     6.5817819356
  - # 4
    frequency:     6.6141553303
  - # 5
    frequency:     6.6978571853
  - # 6
    frequency:     8.0443987010

- q-position: [    0.4843750,    0.0156250,    0.0156250 ]
  distance_from_gamma:  0.170989560
  weight: 24   
  band:
  - # 1
    frequency:     5.9223043427
  - # 2
    frequency:     5.9498385273
  - # 3
    frequency:     6.2816390989
  - # 4
    frequency:     6.3117133501
  - # 5
    frequency:     7.1805241229
  - # 6
    frequency:     7.6385515735

- q-position: [    0.0468750,    0.0468750,    0.0156250 ]
  distance_from_gamma:  0.024017801
  weight: 24   
  band:
  - # 1
    frequency:     1.4944331399
  - # 2
    frequency:     1.5281165491
  - # 3
    frequency:     1.9968968420
  - # 4
    frequency:     9.2811601881
  - # 5
    frequency:     9.3303468958
  - # 6
    frequency:     9.3487285476

- q-position: [    0.0781250,    0.0468750,    0.0156250 ]
  distance_from_gamma:  0.032597964
  weight: 48   
  band:
  - # 1
    frequency:     1.7277657439
  - # 2
    frequency:     1.7863519191
  - # 3
    frequency:     2.4490578692
  - # 4
    frequency:     9.1094053623
  - # 5
    frequency:     9.1658161278
  - # 6
    frequency:     9.2822592052

- q-position: [    0.1093750,    0.0468750,    0.0156250 ]
  distance_from_gamma:  0.042323586
  weight: 48   
  band:
  - # 1
    frequency:     2.0064481031
  - # 2
    frequency:     2.0818139285
  - # 3
    frequency:     2.9384622793
  - # 4
    frequency:     8.8725059672
  - # 5
    frequency:     8.9303901449
  - # 6
    frequency:     9.2093952494

- q-position: [    0.1406250,    0.0468750,    0.0156250 ]
  distance_from_gamma:  0.052562637
  weight: 48   
  band:
  - # 1
    frequency:     2.2891107449
  - # 2
    frequency:     2.3753199882
  - # 3
    frequency:     3.4044467300
  - # 4
    frequency:     8.5930935372
  - # 5
    frequency:     8.6552637470
  - # 6
    frequency:     9.1371967252

- q-position: [    0.1718750,    0.0468750,    0.0156250 ]
  distance_from_gamma:  0.063065537
  weight: 48   
  band:
  - # 1
    frequency:     2.5576948791
  - # 2
    frequency:     2.6494438143
  - # 3
    frequency:     3.8178722026
  - # 4
    frequency:     8.2973226804
  - # 5
    frequency:     8.3671898474
  - # 6
    frequency:     9.0780025889

- q-position: [    0.2031250,    0.0468750,    0.0156250 ]
  distance_from_gamma:  0.073719599
  weight: 48   
  band:
  - # 1
    frequency:     2.8107751345
  - # 2
    frequency:     2.9029736925
  - # 3
    frequency:     4.1705447126
  - # 4
    frequency:     8.0107629412
  - # 5
    frequency:     8.0911193186
  - # 6
    frequency:     9.0388571408

- q-position: [    0.2343750,    0.0468750,    0.0156250 ]
  distance_from_gamma:  0.084467644
  weight: 48   
  band:
  - # 1
    frequency:     3.0581145250
  - # 2
    frequency:     3.1463858348
  - # 3
    frequency:     4.4701387061
  - # 4
    frequency:     7.7534609104
  - # 5
    frequency:     7.8460947952
  - # 6
    frequency:     9.0187055567

- q-position: [    0.2656250,    0.0468750,    0.0156250 ]
  distance_from_gamma:  0.095277871
  weight: 48   
  band:
  - # 1
    frequency:     3.3153769798
  - # 2
    frequency:     3.3970974124
  - # 3
    frequency:     4.7366165973
  - # 4
    frequency:     7.5357120217
  - # 5
    frequency:     7.6414990940
  - # 6
    frequency:     9.0077797065

- q-position: [    0.2968750,    0.0468750,    0.0156250 ]
  distance_from_gamma:  0.106131281
  weight: 48   
  band:
  - # 1
    frequency:     3.5981514260
  - # 2
    frequency:     3.6736023591
  - # 3
    frequency:     4.9977051130
  - # 4
    frequency:     7.3560536150
  - # 5
    frequency:     7.4750440244
  - # 6
    frequency:     8.9892635308

- q-position: [    0.3281250,    0.0468750,    0.0156250 ]
  distance_from_gamma:  0.117015858
  weight: 48   
  band:
  - # 1
    frequency:     3.9163250079
  - # 2
    frequency:     3.9892459876
  - # 3
    frequency:     5.2823334389
  - # 4
    frequency:     7.2022733144
  - # 5
    frequency:     7.3336098512
  - # 6
    frequency:     8.9426344743

- q-position: [    0.3593750,    0.0468750,    0.0156250 ]
  distance_from_gamma:  0.127923647
  weight: 48   
  band:
  - # 1
    frequency:     4.2708799377
  - # 2
    frequency:     4.3476878751
  - # 3
    frequency:     5.6126162022
  - # 4
    frequency:     7.0550758171
  - # 5
    frequency:     7.1968574704
  - # 6
    frequency:     8.8476521654

- q-position: [    0.3906250,    0.0468750,    0.0156250 ]
  distance_from_gamma:  0.138849178
  weight: 48   
  band:
  - # 1
    frequency:     4.6541508768
  - # 2
    frequency:     4.7417322603
  - # 3
    frequency:     5.9969851768
  - # 4
    frequency:     6.8930644550
  - # 5
    frequency:     7.0423157927
  - # 6
    frequency:     8.6880376706

- q-position: [    0.4218750,    0.0468750,    0.0156250 ]
  distance_from_gamma:  0.149788568
  weight: 48   
  band:
  - # 1
    frequency:     5.0523183579
  - # 2
    frequency:     5.1554411609
  - # 3
    frequency:     6.4278250383
  - # 4
    frequency:     6.6974950326
  - # 5
    frequency:     6.8502944447
  - # 6
    frequency:     8.4542524198

- q-position: [    0.4531250,    0.0468750,    0.0156250 ]
  distance_from_gamma:  0.160738988
  weight: 48   
  band:
  - # 1
    frequency:     5.4481891513
  - # 2
    frequency:     5.5681122386
  - # 3
    frequency:     6.4557695069
  - # 4
    frequency:     6.6074983325
  - # 5
    frequency:     6.8846970481
  - # 6
    frequency:     8.1451568475

- q-position: [    0.4843750,    0.0468750,    0.0156250 ]
  distance_from_gamma:  0.171698328
  weight: 48   
  band:
  - # 1
    frequency:     5.8238064986
  - # 2
    frequency:     5.9585894502
  - # 3
    frequency:     6.1633022053
  - # 4
    frequency:     6.3089839419
  - # 5
    frequency:     7.3406877167
  - # 6
    frequency:     7.7685538861

- q-position: [    0.0781250,    0.0781250,    0.0156250 ]
  distance_from_gamma:  0.039349710
  weight: 24   
  band:
  - # 1
    frequency:     1.8645637751
  - # 2
    frequency:     1.9894101625
  - # 3
    frequency:     2.7788446738
  - # 4
    frequency:     8.9736091989
  - # 5
    frequency:     9.1373211301
  - # 6
    frequency:     9.1426220285

- q-position: [    0.1093750,    0.0781250,    0.0156250 ]
  distance_from_gamma:  0.047718533
  weight: 48   
  band:
  - # 1
    frequency:     2.0598406942
  - # 2
    frequency:     2.2386618930
  - # 3
    frequency:     3.1645765589
  - # 4
    frequency:     8.7847843214
  - # 5
    frequency:     8.9430952145
  - # 6
    frequency:     9.1090570981

- q-position: [    0.1406250,    0.0781250,    0.0156250 ]
  distance_from_gamma:  0.056996520
  weight: 48   
  band:
  - # 1
    frequency:     2.2891072058
  - # 2
    frequency:     2.5037964412
  - # 3
    frequency:     3.5609558668
  - # 4
    frequency:     8.5585887520
  - # 5
    frequency:     8.7069092854
  - # 6
    frequency:     9.0821544891

- q-position: [    0.1718750,    0.0781250,    0.0156250 ]
  distance_from_gamma:  0.066805946
  weight: 48   
  band:
  - # 1
    frequency:     2.5362083033
  - # 2
    frequency:     2.7683061274
  - # 3
    frequency:     3.9423608750
  - # 4
    frequency:     8.3118613913
  - # 5
    frequency:     8.4511910882
  - # 6
    frequency:     9.0649441471

- q-position: [    0.2031250,    0.0781250,    0.0156250 ]
  distance_from_gamma:  0.076943822
  weight: 48   
  band:
  - # 1
    frequency:     2.7951861156
  - # 2
    frequency:     3.0277650713
  - # 3
    frequency:     4.2982285015
  - # 4
    frequency:     8.0592440274
  - # 5
    frequency:     8.1961931871
  - # 6
    frequency:     9.0594180847

- q-position: [    0.2343750,    0.0781250,    0.0156250 ]
  distance_from_gamma:  0.087295792
  weight: 48   
  band:
  - # 1
    frequency:     3.0670608930
  - # 2
    frequency:     3.2866608808
  - # 3
    frequency:     4.6297243708
  - # 4
    frequency:     7.8109674660
  - # 5
    frequency:     7.9595355589
  - # 6
    frequency:     9.0620979182

- q-position: [    0.2656250,    0.0781250,    0.0156250 ]
  distance_from_gamma:  0.097793891
  weight: 48   
  band:
  - # 1
    frequency:     3.3556542343
  - # 2
    frequency:     3.5546277850
  - # 3
    frequency:     4.9466908816
  - # 4
    frequency:     7.5736272475
  - # 5
    frequency:     7.7506633049
  - # 6
    frequency:     9.0639329479

- q-position: [    0.2968750,    0.0781250,    0.0156250 ]
  distance_from_gamma:  0.108395670
  weight: 48   
  band:
  - # 1
    frequency:     3.6637673488
  - # 2
    frequency:     3.8422248664
  - # 3
    frequency:     5.2640747460
  - # 4
    frequency:     7.3505470775
  - # 5
    frequency:     7.5679805016
  - # 6
    frequency:     9.0515618915

- q-position: [    0.3281250,    0.0781250,    0.0156250 ]
  distance_from_gamma:  0.119073437
  weight: 48   
  band:
  - # 1
    frequency:     3.9907127132
  - # 2
    frequency:     4.1568856210
  - # 3
    frequency:     5.5974641709
  - # 4
    frequency:     7.1399911198
  - # 5
    frequency:     7.4013217636
  - # 6
    frequency:     9.0095446573

- q-position: [    0.3593750,    0.0781250,    0.0156250 ]
  distance_from_gamma:  0.129808443
  weight: 48   
  band:
  - # 1
    frequency:     4.3318851975
  - # 2
    frequency:     4.5000976894
  - # 3
    frequency:     5.9581080442
  - # 4
    frequency:     6.9350732045
  - # 5
    frequency:     7.2358112183
  - # 6
    frequency:     8.9229718604

- q-position: [    0.3906250,    0.0781250,    0.0156250 ]
  distance_from_gamma:  0.140587577
  weight: 48   
  band:
  - # 1
    frequency:     4.6800577799
  - # 2
    frequency:     4.8665556147
  - # 3
    frequency:     6.3487873911
  - # 4
    frequency:     6.7259111870
  - # 5
    frequency:     7.0554094387
  - # 6
    frequency:     8.7798996411

- q-position: [    0.4218750,    0.0781250,    0.0156250 ]
  distance_from_gamma:  0.151401412
  weight: 48   
  band:
  - # 1
    frequency:     5.0270991334
  - # 2
    frequency:     5.2451915352
  - # 3
    frequency:     6.5024256828
  - # 4
    frequency:     6.7623514312
  - # 5
    frequency:     6.8461140866
  - # 6
    frequency:     8.5732404349

- q-position: [    0.4531250,    0.0781250,    0.0156250 ]
  distance_from_gamma:  0.162243012
  weight: 48   
  band:
  - # 1
    frequency:     5.3649734683
  - # 2
    frequency:     5.6214964526
  - # 3
    frequency:     6.2567383009
  - # 4
    frequency:     6.5984466791
  - # 5
    frequency:     7.1835798482
  - # 6
    frequency:     8.3019375065

- q-position: [    0.4843750,    0.0781250,    0.0156250 ]
  distance_from_gamma:  0.173107158
  weight: 48   
  band:
  - # 1
    frequency:     5.6862122369
  - # 2
    frequency:     5.9803855171
  - # 3
    frequency:     5.9846745423
  - # 4
    frequency:     6.3089134644
  - # 5
    frequency:     7.5930915551
  - # 6
    frequency:     7.9713838316

- q-position: [    0.1093750,    0.1093750,    0.0156250 ]
  distance_from_gamma:  0.054824420
  weight: 24   
  band:
  - # 1
    frequency:     2.1696520473
  - # 2
    frequency:     2.4461396926
  - # 3
    frequency:     3.4525710090
  - # 4
    frequency:     8.6595627413
  - # 5
    frequency:     8.9131696003
  - # 6
    frequency:     9.0136162368

- q-position: [    0.1406250,    0.1093750,    0.0156250 ]
  distance_from_gamma:  0.063065537
  weight: 48   
  band:
  - # 1
    frequency:     2.3384053786
  - # 2
    frequency:     2.6850871099
  - # 3
    frequency:     3.7787957400
  - # 4
    frequency:     8.5032409397
  - # 5
    frequency:     8.7432311600
  - # 6
    frequency:     9.0266793957

- q-position: [    0.1718750,    0.1093750,    0.0156250 ]
  distance_from_gamma:  0.072053404
  weight: 48   
  band:
  - # 1
    frequency:     2.5600272508
  - # 2
    frequency:     2.9421237984
  - # 3
    frequency:     4.1278604703
  - # 4
    frequency:     8.3211563986
  - # 5
    frequency:     8.5275137925
  - # 6
    frequency:     9.0620676706

- q-position: [    0.2031250,    0.1093750,    0.0156250 ]
  distance_from_gamma:  0.081541465
  weight: 48   
  band:
  - # 1
    frequency:     2.8254017458
  - # 2
    frequency:     3.2100881068
  - # 3
    frequency:     4.4899164380
  - # 4
    frequency:     8.1138707588
  - # 5
    frequency:     8.2980464216
  - # 6
    frequency:     9.0991605389

- q-position: [    0.2343750,    0.1093750,    0.0156250 ]
  distance_from_gamma:  0.091374034
  weight: 48   
  band:
  - # 1
    frequency:     3.1245563576
  - # 2
    frequency:     3.4867820812
  - # 3
    frequency:     4.8591771562
  - # 4
    frequency:     7.8769735833
  - # 5
    frequency:     8.0761247460
  - # 6
    frequency:     9.1297032507

- q-position: [    0.2656250,    0.1093750,    0.0156250 ]
  distance_from_gamma:  0.101450992
  weight: 48   
  band:
  - # 1
    frequency:     3.4469469519
  - # 2
    frequency:     3.7730633233
  - # 3
    frequency:     5.2330048029
  - # 4
    frequency:     7.6140391166
  - # 5
    frequency:     7.8706677708
  - # 6
    frequency:     9.1452058456

- q-position: [    0.2968750,    0.1093750,    0.0156250 ]
  distance_from_gamma:  0.111706221
  weight: 48   
  band:
  - # 1
    frequency:     3.7813836968
  - # 2
    frequency:     4.0708079947
  - # 3
    frequency:     5.6110022893
  - # 4
    frequency:     7.3387843289
  - # 5
    frequency:     7.6759459844
  - # 6
    frequency:     9.1366445633

- q-position: [    0.3281250,    0.1093750,    0.0156250 ]
  distance_from_gamma:  0.122094808
  weight: 48   
  band:
  - # 1
    frequency:     4.1165119851
  - # 2
    frequency:     4.3811241063
  - # 3
    frequency:     5.9937545649
  - # 4
    frequency:     7.0629704636
  - # 5
    frequency:     7.4835139612
  - # 6
    frequency:     9.0951590211

- q-position: [    0.3593750,    0.1093750,    0.0156250 ]
  distance_from_gamma:  0.132585409
  weight: 48   
  band:
  - # 1
    frequency:     4.4420705122
  - # 2
    frequency:     4.7031586724
  - # 3
    frequency:     6.3811530056
  - # 4
    frequency:     6.7935937184
  - # 5
    frequency:     7.2854802365
  - # 6
    frequency:     9.0129335991

- q-position: [    0.3906250,    0.1093750,    0.0156250 ]
  distance_from_gamma:  0.143155599
  weight: 48   
  band:
  - # 1
    frequency:     4.7505437195
  - # 2
    frequency:     5.0336457802
  - # 3
    frequency:     6.5338936325
  - # 4
    frequency:     6.7707124180
  - # 5
    frequency:     7.0745153426
  - # 6
    frequency:     8.8840405357

- q-position: [    0.4218750,    0.1093750,    0.0156250 ]
  distance_from_gamma:  0.153788967
  weight: 48   
  band:
  - # 1
    frequency:     5.0384624419
  - # 2
    frequency:     5.3670744427
  - # 3
    frequency:     6.2840321497
  - # 4
    frequency:     6.8444988763
  - # 5
    frequency:     7.1566486575
  - # 6
    frequency:     8.7051280102

- q-position: [    0.4531250,    0.1093750,    0.0156250 ]
  distance_from_gamma:  0.164473261
  weight: 48   
  band:
  - # 1
    frequency:     5.3066126036
  - # 2
    frequency:     5.6964058372
  - # 3
    frequency:     6.0415520743
  - # 4
    frequency:     6.5914265454
  - # 5
    frequency:     7.5302262121
  - # 6
    frequency:     8.4758825734

- q-position: [    0.4843750,    0.1093750,    0.0156250 ]
  distance_from_gamma:  0.175199164
  weight: 48   
  band:
  - # 1
    frequency:     5.5590949658
  - # 2
    frequency:     5.8018981807
  - # 3
    frequency:     6.0142382213
  - # 4
    frequency:     6.3140791072
  - # 5
    frequency:     7.8811390454
  - # 6
    frequency:     8.1992174841

- q-position: [    0.1406250,    0.1406250,    0.0156250 ]
  distance_from_gamma:  0.070347757
  weight: 24   
  band:
  - # 1
    frequency:     2.4609910857
  - # 2
    frequency:     2.9086660049
  - # 3
    frequency:     4.0528760026
  - # 4
    frequency:     8.4224553426
  - # 5
    frequency:     8.6895386340
  - # 6
    frequency:     9.0333709194

- q-position: [    0.1718750,    0.1406250,    0.0156250 ]
  distance_from_gamma:  0.078506293
  weight: 48   
  band:
  - # 1
    frequency:     2.6627512447
  - # 2
    frequency:     3.1641908544
  - # 3
    frequency:     4.3791424300
  - # 4
    frequency:     8.3082367832
  - # 5
    frequency:     8.5426691303
  - # 6
    frequency:     9.0973291968

- q-position: [    0.2031250,    0.1406250,    0.0156250 ]
  distance_from_gamma:  0.087295792
  weight: 48   
  band:
  - # 1
    frequency:     2.9333759756
  - # 2
    frequency:     3.4422805942
  - # 3
    frequency:     4.7502890534
  - # 4
    frequency:     8.1444960111
  - # 5
    frequency:     8.3579489920
  - # 6
    frequency:     9.1671532713

- q-position: [    0.2343750,    0.1406250,    0.0156250 ]
  distance_from_gamma:  0.096544078
  weight: 48   
  band:
  - # 1
    frequency:     3.2530178800
  - # 2
    frequency:     3.7348194094
  - # 3
    frequency:     5.1547648302
  - # 4
    frequency:     7.9141133604
  - # 5
    frequency:     8.1701720305
  - # 6
    frequency:     9.2193024852

- q-position: [    0.2656250,    0.1406250,    0.0156250 ]
  distance_from_gamma:  0.106131281
  weight: 48   
  band:
  - # 1
    frequency:     3.5986277557
  - # 2
    frequency:     4.0350344016
  - # 3
    frequency:     5.5783876567
  - # 4
    frequency:     7.6271552854
  - # 5
    frequency:     7.9816039162
  - # 6
    frequency:     9.2430859834

- q-position: [    0.2968750,    0.1406250,    0.0156250 ]
  distance_from_gamma:  0.115973380
  weight: 48   
  band:
  - # 1
    frequency:     3.9479190530
  - # 2
    frequency:     4.3375065363
  - # 3
    frequency:     6.0068531687
  - # 4
    frequency:     7.3080144423
  - # 5
    frequency:     7.7822285579
  - # 6
    frequency:     9.2331555098

- q-position: [    0.3281250,    0.1406250,    0.0156250 ]
  distance_from_gamma:  0.126010663
  weight: 48   
  band:
  - # 1
    frequency:     4.2817275918
  - # 2
    frequency:     4.6381794936
  - # 3
    frequency:     6.4277588965
  - # 4
    frequency:     6.9777092822
  - # 5
    frequency:     7.5682252091
  - # 6
    frequency:     9.1872712915

- q-position: [    0.3593750,    0.1406250,    0.0156250 ]
  distance_from_gamma:  0.136199984
  weight: 48   
  band:
  - # 1
    frequency:     4.5858076743
  - # 2
    frequency:     4.9343797229
  - # 3
    frequency:     6.6543386838
  - # 4
    frequency:     6.8315605547
  - # 5
    frequency:     7.3400499922
  - # 6
    frequency:     9.1050857584

- q-position: [    0.3906250,    0.1406250,    0.0156250 ]
  distance_from_gamma:  0.146509625
  weight: 48   
  band:
  - # 1
    frequency:     4.8524080430
  - # 2
    frequency:     5.2247671037
  - # 3
    frequency:     6.3530869068
  - # 4
    frequency:     7.0997675313
  - # 5
    frequency:     7.2115484650
  - # 6
    frequency:     8.9872023451

- q-position: [    0.4218750,    0.1406250,    0.0156250 ]
  distance_from_gamma:  0.156915873
  weight: 48   
  band:
  - # 1
    frequency:     5.0814226760
  - # 2
    frequency:     5.5090559804
  - # 3
    frequency:     6.0842388914
  - # 4
    frequency:     6.8498253354
  - # 5
    frequency:     7.5632887557
  - # 6
    frequency:     8.8344593571

- q-position: [    0.4531250,    0.1406250,    0.0156250 ]
  distance_from_gamma:  0.167400712
  weight: 48   
  band:
  - # 1
    frequency:     5.2805136518
  - # 2
    frequency:     5.7875652443
  - # 3
    frequency:     5.8509577576
  - # 4
    frequency:     6.5924190681
  - # 5
    frequency:     7.8839922149
  - # 6
    frequency:     8.6474977753

- q-position: [    0.4843750,    0.1406250,    0.0156250 ]
  distance_from_gamma:  0.177950251
  weight: 48   
  band:
  - # 1
    frequency:     5.4636620748
  - # 2
    frequency:     5.6482098103
  - # 3
    frequency:     6.0608078787
  - # 4
    frequency:     6.3291357874
  - # 5
    frequency:     8.1720402188
  - # 6
    frequency:     8.4266404544

- q-position: [    0.1718750,    0.1718750,    0.0156250 ]
  distance_from_gamma:  0.085893359
  weight: 24   
  band:
  - # 1
    frequency:     2.8562576146
  - # 2
    frequency:     3.4250832486
  - # 3
    frequency:     4.6988679467
  - # 4
    frequency:     8.2496873607
  - # 5
    frequency:     8.4761140512
  - # 6
    frequency:     9.1739218298

- q-position: [    0.2031250,    0.1718750,    0.0156250 ]
  distance_from_gamma:  0.093994609
  weight: 48   
  band:
  - # 1
    frequency:     3.1290423066
  - # 2
    frequency:     3.7132792771
  - # 3
    frequency:     5.0815422815
  - # 4
    frequency:     8.1138508205
  - # 5
    frequency:     8.3624669026
  - # 6
    frequency:     9.2574284179

- q-position: [    0.2343750,    0.1718750,    0.0156250 ]
  distance_from_gamma:  0.102641074
  weight: 48   
  band:
  - # 1
    frequency:     3.4550779696
  - # 2
    frequency:     4.0163610160
  - # 3
    frequency:     5.5120400640
  - # 4
    frequency:     7.8875751916
  - # 5
    frequency:     8.2275514324
  - # 6
    frequency:     9.3182295547

- q-position: [    0.2656250,    0.1718750,    0.0156250 ]
  distance_from_gamma:  0.111706221
  weight: 48   
  band:
  - # 1
    frequency:     3.8041927755
  - # 2
    frequency:     4.3224198941
  - # 3
    frequency:     5.9685703865
  - # 4
    frequency:     7.5911206077
  - # 5
    frequency:     8.0649033020
  - # 6
    frequency:     9.3425573220

- q-position: [    0.2968750,    0.1718750,    0.0156250 ]
  distance_from_gamma:  0.121096061
  weight: 48   
  band:
  - # 1
    frequency:     4.1484758315
  - # 2
    frequency:     4.6213865178
  - # 3
    frequency:     6.4275407621
  - # 4
    frequency:     7.2503122931
  - # 5
    frequency:     7.8686697497
  - # 6
    frequency:     9.3271876403

- q-position: [    0.3281250,    0.1718750,    0.0156250 ]
  distance_from_gamma:  0.130740652
  weight: 48   
  band:
  - # 1
    frequency:     4.4653464720
  - # 2
    frequency:     4.9061221912
  - # 3
    frequency:     6.8678782321
  - # 4
    frequency:     6.8899647835
  - # 5
    frequency:     7.6417345457
  - # 6
    frequency:     9.2750328147

- q-position: [    0.3593750,    0.1718750,    0.0156250 ]
  distance_from_gamma:  0.140587577
  weight: 48   
  band:
  - # 1
    frequency:     4.7392881409
  - # 2
    frequency:     5.1731732036
  - # 3
    frequency:     6.5353541577
  - # 4
    frequency:     7.2737266426
  - # 5
    frequency:     7.3921247822
  - # 6
    frequency:     9.1919554535

- q-position: [    0.3906250,    0.1718750,    0.0156250 ]
  distance_from_gamma:  0.150597149
  weight: 48   
  band:
  - # 1
    frequency:     4.9632136849
  - # 2
    frequency:     5.4230461842
  - # 3
    frequency:     6.2103707150
  - # 4
    frequency:     7.1300636090
  - # 5
    frequency:     7.6355180441
  - # 6
    frequency:     9.0841486309

- q-position: [    0.4218750,    0.1718750,    0.0156250 ]
  distance_from_gamma:  0.160738988
  weight: 48   
  band:
  - # 1
    frequency:     5.1395292231
  - # 2
    frequency:     5.6598010708
  - # 3
    frequency:     5.9332919863
  - # 4
    frequency:     6.8656694515
  - # 5
    frequency:     7.9498097042
  - # 6
    frequency:     8.9560520853

- q-position: [    0.4531250,    0.1718750,    0.0156250 ]
  distance_from_gamma:  0.170989560
  weight: 48   
  band:
  - # 1
    frequency:     5.2803703890
  - # 2
    frequency:     5.7121574537
  - # 3
    frequency:     5.8899311142
  - # 4
    frequency:     6.6069987612
  - # 5
    frequency:     8.2182889179
  - # 6
    frequency:     8.8090064293

- q-position: [    0.4843750,    0.1718750,    0.0156250 ]
  distance_from_gamma:  0.181330425
  weight: 48   
  band:
  - # 1
    frequency:     5.4061789796
  - # 2
    frequency:     5.5420651037
  - # 3
    frequency:     6.1207547798
  - # 4
    frequency:     6.3585837573
  - # 5
    frequency:     8.4462562430
  - # 6
    frequency:     8.6408191652

- q-position: [    0.2031250,    0.2031250,    0.0156250 ]
  distance_from_gamma:  0.101450992
  weight: 24   